Title: RC step
Date: Wed Jun 03 12:00:00 2026
Plotname: Transient Analysis
Flags: real forward
No. Variables: 2
No. Points: 3
Variables:
        0       time    time
        1       V(out)  voltage
Values:
0       0
        0
1       0.001
        3.16
2       0.002
        4.32
